# OOMMF: rectangular mesh v1.0
# Segment count: 1
# Begin: Segment
# Begin: Header
# Title: Oxs_MinDriver::Magnetization
# Desc: Oxs vector field output
# Desc: MIF source file: /home/david/git/oommfpy/test/test_mif.mif
# Desc: Iteration: 0, State id: 9
# Desc: Stage: 0, Stage iteration: 0
# Desc: Stage simulation time: -1 s
# Desc: Total simulation time: -2 s
# meshtype: rectangular
# meshunit: m
# xbase: 5.0000000000000003e-10
# ybase: 5.0000000000000003e-10
# zbase: 5.0000000000000003e-10
# xstepsize: 1.0000000000000001e-09
# ystepsize: 1.0000000000000001e-09
# zstepsize: 1.0000000000000001e-09
# xnodes: 3
# ynodes: 3
# znodes: 1
# xmin: 0
# ymin: 0
# zmin: 0
# xmax: 3.0000000000000004e-09
# ymax: 3.0000000000000004e-09
# zmax: 1.0000000000000001e-09
# valueunit: A/m
# valuemultiplier: 1
# ValueRangeMinMag: 8
# ValueRangeMaxMag: 8
# End: Header
# Begin: Data Text
 0.0000000000000000  0.0000000000000000  8.0000000000000000
 0.0000000000000000  0.0000000000000000  8.0000000000000000
 0.0000000000000000  0.0000000000000000  8.0000000000000000
 0.0000000000000000  8.0000000000000000  0.0000000000000000
 0.0000000000000000  8.0000000000000000  0.0000000000000000
 0.0000000000000000  8.0000000000000000  0.0000000000000000
 8.0000000000000000  0.0000000000000000  0.0000000000000000
 8.0000000000000000  0.0000000000000000  0.0000000000000000
 8.0000000000000000  0.0000000000000000  0.0000000000000000
# End: Data Text
# End: Segment
